  VARIABLES="X","Y","Cp" 
zone I=193 , J= 33
       21.00000000        0.00000000        0.00047327
       17.81231100        0.00000000        0.00066331
       15.13067120        0.00000000        0.00113155
       12.87475230        0.00000000        0.00154467
       10.97696950        0.00000000        0.00186184
        9.38046730        0.00000000        0.00218537
        8.03741615        0.00000000        0.00251878
        6.90757970        0.00000000        0.00294410
        5.95710927        0.00000000        0.00348744
        5.15752980        0.00000000        0.00423180
        4.48488674        0.00000000        0.00523238
        3.91902844        0.00000000        0.00658963
        3.44300239        0.00000000        0.00839403
        3.04254737        0.00000000        0.01077218
        2.70566617        0.00000000        0.01384812
        2.42226620        0.00000000        0.01776927
        2.18385711        0.00000000        0.02267608
        1.98329640        0.00000000        0.02871399
        1.81457550        0.00000000        0.03600979
        1.67263971        0.00000000        0.04467886
        1.55323680        0.00000000        0.05481278
        1.45278957        0.00000000        0.06649163
        1.36828874        0.00000000        0.07978818
        1.29720275        0.00000000        0.09479024
        1.23740194        0.00000000        0.11160851
        1.18709475        0.00000000        0.13042743
        1.14477402        0.00000000        0.15165663
        1.10917188        0.00000000        0.17551230
        1.07922172        0.00000000        0.20253299
        1.05402627        0.00000000        0.24255365
        1.03283069        0.00000000        0.27424883
        1.01500000        0.00000000        0.36684314
        1.00000000        0.00000000        0.40998404
        0.98500000       -0.00210056        0.32184431
        0.97000000       -0.00416351        0.25991042
        0.95486233       -0.00620827        0.21313748
        0.93945731       -0.00825164        0.17784272
        0.92379482       -0.01029211        0.14690269
        0.90788476       -0.01232716        0.12055921
        0.89173702       -0.01435535        0.09613867
        0.87536150       -0.01637310        0.07429616
        0.85876810       -0.01838009        0.05347692
        0.84196671       -0.02037411        0.03404993
        0.82496722       -0.02235301        0.01534216
        0.80777953       -0.02431343       -0.00236876
        0.79041354       -0.02625439       -0.01965061
        0.77287913       -0.02817382       -0.03641455
        0.75518622       -0.03006940       -0.05293641
        0.73734468       -0.03193875       -0.06917478
        0.71936441       -0.03377937       -0.08530956
        0.70125532       -0.03558862       -0.10134214
        0.68302729       -0.03736374       -0.11739582
        0.66469022       -0.03910178       -0.13349047
        0.64625400       -0.04079963       -0.14971369
        0.62772854       -0.04245399       -0.16609604
        0.60912372       -0.04406137       -0.18269864
        0.59044944       -0.04561805       -0.19954254
        0.57171559       -0.04712009       -0.21668860
        0.55293207       -0.04856331       -0.23421813
        0.53410879       -0.04994330       -0.25214320
        0.51525561       -0.05125538       -0.27020635
        0.49638246       -0.05249462       -0.28821352
        0.47749921       -0.05365579       -0.30704463
        0.45861577       -0.05473340       -0.32847405
        0.43974203       -0.05572163       -0.35141219
        0.42088789       -0.05661438       -0.36868024
        0.40206323       -0.05740518       -0.37234285
        0.38327796       -0.05808722       -0.36819951
        0.36454197       -0.05865272       -0.39061261
        0.34586516       -0.05909492       -0.48160879
        0.32725741       -0.05940584       -0.59766650
        0.30872863       -0.05957699       -0.65051293
        0.29028871       -0.05959823       -0.64535501
        0.27194755       -0.05945987       -0.62826543
        0.25371504       -0.05915132       -0.61261448
        0.23560107       -0.05866079       -0.59803374
        0.21761554       -0.05797523       -0.58173277
        0.19976835       -0.05707994       -0.56194008
        0.18199444       -0.05595290       -0.53829319
        0.16422052       -0.05456422       -0.51084714
        0.14644661       -0.05288151       -0.47860656
        0.12952444       -0.05094866       -0.44072315
        0.11349477       -0.04878921       -0.39961579
        0.09839623       -0.04641160       -0.35550736
        0.08426519       -0.04382570       -0.30395780
        0.07113569       -0.04101992       -0.24319861
        0.05903937       -0.03802631       -0.17498798
        0.04800535       -0.03485754       -0.09871581
        0.03806023       -0.03152720       -0.00747772
        0.02922797       -0.02801635        0.10381665
        0.02152983       -0.02436547        0.23569275
        0.01498437       -0.02058860        0.39001055
        0.00960736       -0.01670188        0.57318621
        0.00541174       -0.01265222        0.77736726
        0.00240764       -0.00849596        0.96696620
        0.00060227       -0.00424289        1.08715331
        0.00000000        0.00000000        1.08567325
        0.00060227        0.00424289        0.95091108
        0.00240764        0.00849596        0.71544518
        0.00541174        0.01265222        0.44501522
        0.00960736        0.01670188        0.19515820
        0.01498437        0.02058860       -0.00813984
        0.02152983        0.02436547       -0.16712007
        0.02922797        0.02801635       -0.29749795
        0.03806023        0.03152720       -0.40470243
        0.04800535        0.03485754       -0.48903842
        0.05903937        0.03802631       -0.55602960
        0.07113569        0.04101992       -0.61552017
        0.08426519        0.04382570       -0.67032331
        0.09839623        0.04641160       -0.71780099
        0.11349477        0.04878921       -0.75747067
        0.12952444        0.05094866       -0.79370336
        0.14644661        0.05288151       -0.82784923
        0.16422052        0.05456422       -0.85774018
        0.18199444        0.05595290       -0.88365130
        0.19976835        0.05707994       -0.90711577
        0.21761554        0.05797523       -0.92855903
        0.23560107        0.05866079       -0.94819950
        0.25371504        0.05915132       -0.96604218
        0.27194755        0.05945987       -0.98231770
        0.29028871        0.05959823       -0.99703597
        0.30872863        0.05957699       -1.01055657
        0.32725741        0.05940584       -1.02267844
        0.34586516        0.05909492       -1.03380353
        0.36454197        0.05865272       -1.04372668
        0.38327796        0.05808722       -1.05305303
        0.40206323        0.05740518       -1.06123051
        0.42088789        0.05661438       -1.06894870
        0.43974203        0.05572163       -1.07545576
        0.45861577        0.05473340       -1.08179228
        0.47749921        0.05365579       -1.08691717
        0.49638246        0.05249462       -1.09223328
        0.51525561        0.05125538       -1.09587781
        0.53410879        0.04994330       -1.10040088
        0.55293207        0.04856331       -1.10427257
        0.57171559        0.04712009       -1.10349217
        0.59044944        0.04561805       -1.11174563
        0.60912372        0.04406137       -1.01913733
        0.62772854        0.04245399       -0.47072161
        0.64625400        0.04079963       -0.01199047
        0.66469022        0.03910178       -0.00476450
        0.68302729        0.03736374       -0.00945772
        0.70125532        0.03558862       -0.00879315
        0.71936441        0.03377937       -0.00471931
        0.73734468        0.03193875        0.00082005
        0.75518622        0.03006940        0.00803423
        0.77287913        0.02817382        0.01691912
        0.79041354        0.02625439        0.02712544
        0.80777953        0.02431343        0.03875694
        0.82496722        0.02235301        0.05156979
        0.84196671        0.02037411        0.06598260
        0.85876810        0.01838009        0.08160064
        0.87536150        0.01637310        0.09903133
        0.89173702        0.01435535        0.11778804
        0.90788476        0.01232716        0.13932628
        0.92379482        0.01029211        0.16287235
        0.93945731        0.00825164        0.19095444
        0.95486233        0.00620827        0.22325672
        0.97000000        0.00416351        0.26580076
        0.98500000        0.00210056        0.32251462
        1.00000000        0.00000000        0.39821058
        1.01500000        0.00000000        0.35356951
        1.03283069        0.00000000        0.26984101
        1.05402627        0.00000000        0.23956316
        1.07922172        0.00000000        0.20031474
        1.10917188        0.00000000        0.17403685
        1.14477402        0.00000000        0.15056662
        1.18709475        0.00000000        0.12968106
        1.23740194        0.00000000        0.11109408
        1.29720275        0.00000000        0.09441744
        1.36828874        0.00000000        0.07949347
        1.45278957        0.00000000        0.06623449
        1.55323680        0.00000000        0.05457288
        1.67263971        0.00000000        0.04444979
        1.81457550        0.00000000        0.03579241
        1.98329640        0.00000000        0.02851142
        2.18385711        0.00000000        0.02249101
        2.42226620        0.00000000        0.01760287
        2.70566617        0.00000000        0.01370005
        3.04254737        0.00000000        0.01064111
        3.44300239        0.00000000        0.00827815
        3.91902844        0.00000000        0.00648709
        4.48488674        0.00000000        0.00514142
        5.15752980        0.00000000        0.00415091
        5.95710927        0.00000000        0.00341511
        6.90757970        0.00000000        0.00287931
        8.03741615        0.00000000        0.00246006
        9.38046730        0.00000000        0.00213247
       10.97696950        0.00000000        0.00181282
       12.87475230        0.00000000        0.00150103
       15.13067120        0.00000000        0.00109051
       17.81231100        0.00000000        0.00062979
       21.00000000        0.00000000        0.00044698
       21.00000000       -0.20000000        0.00046931
       17.81230880       -0.17051389        0.00066106
       15.13067120       -0.14570880        0.00113411
       12.87475070       -0.12484164        0.00155092
       10.97696730       -0.10728711        0.00187049
        9.38046466       -0.09251934        0.00219765
        8.03741308       -0.08009615        0.00253460
        6.90757630       -0.06964531        0.00296447
        5.95710568       -0.06085348        0.00351291
        5.15752617       -0.05345736        0.00426331
        4.48488323       -0.04723572        0.00527067
        3.91902521       -0.04200232        0.00663554
        3.44299955       -0.03760012        0.00844815
        3.04254491       -0.03389684        0.01083487
        2.70566393       -0.03078123        0.01391926
        2.42226395       -0.02815987        0.01784827
        2.18385471       -0.02595434        0.02276170
        1.98329390       -0.02409870        0.02880433
        1.81457318       -0.02253753        0.03610197
        1.67263795       -0.02122414        0.04476833
        1.55323594       -0.02011926        0.05489186
        1.45278974       -0.01918980        0.06654698
        1.36828974       -0.01840792        0.07979688
        1.29720411       -0.01775019        0.09471434
        1.23740303       -0.01719690        0.11138842
        1.18709494       -0.01673147        0.12997638
        1.14477287       -0.01633994        0.15083091
        1.10916923       -0.01601058        0.17404676
        1.07921791       -0.01573341        0.19994322
        1.05402249       -0.01550055        0.23493628
        1.03282349       -0.01530678        0.26168308
        1.01500168       -0.01512705        0.32186498
        1.00104309       -0.01498541        0.35173601
        0.98704117       -0.01679844        0.30071895
        0.97199136       -0.01873052        0.25402196
        0.95679746       -0.02062877        0.21265281
        0.94133610       -0.02252339        0.17897661
        0.92561709       -0.02441329        0.14848670
        0.90965349       -0.02629492        0.12231828
        0.89345412       -0.02816698        0.09793985
        0.87702780       -0.03002629        0.07610979
        0.86038482       -0.03187256        0.05528889
        0.84353392       -0.03370343        0.03588799
        0.82648431       -0.03551694        0.01718957
        0.80924691       -0.03730985       -0.00053544
        0.79183223       -0.03908128       -0.01782858
        0.77424960       -0.04082940       -0.03459095
        0.75650872       -0.04255204       -0.05110568
        0.73861939       -0.04424692       -0.06733065
        0.72059140       -0.04591164       -0.08344624
        0.70243458       -0.04754366       -0.09945289
        0.68415876       -0.04914028       -0.11547360
        0.66577375       -0.05069867       -0.13152776
        0.64728937       -0.05221581       -0.14770255
        0.62871543       -0.05368851       -0.16402822
        0.61006174       -0.05511335       -0.18056552
        0.59133811       -0.05648673       -0.19733522
        0.57255437       -0.05780481       -0.21439779
        0.55372033       -0.05906351       -0.23183401
        0.53484582       -0.06025850       -0.24965510
        0.51594065       -0.06138520       -0.26760302
        0.49701466       -0.06243876       -0.28548543
        0.47807766       -0.06341403       -0.30418453
        0.45913950       -0.06430561       -0.32546822
        0.44020999       -0.06510776       -0.34823881
        0.42129895       -0.06581443       -0.36531942
        0.40241622       -0.06641924       -0.36879027
        0.38357148       -0.06691545       -0.36452645
        0.36477475       -0.06729532       -0.38691953
        0.34603598       -0.06755215       -0.47768161
        0.32736479       -0.06767801       -0.59305622
        0.30877072       -0.06766445       -0.64534670
        0.29026355       -0.06750135       -0.63996660
        0.27185322       -0.06717903       -0.62263642
        0.25354937       -0.06668690       -0.60668700
        0.23536153       -0.06601314       -0.59174984
        0.21729924       -0.06514464       -0.57503358
        0.19937168       -0.06406659       -0.55477728
        0.18151300       -0.06275604       -0.53061434
        0.16364870       -0.06118196       -0.50245578
        0.14577661       -0.05931135       -0.46931219
        0.12874855       -0.05719609       -0.43054500
        0.11260991       -0.05486019       -0.38835697
        0.09739440       -0.05231127       -0.34255890
        0.08313154       -0.04955747       -0.28894957
        0.06985601       -0.04658622       -0.22599500
        0.05760014       -0.04342841       -0.15484930
        0.04638369       -0.04009230       -0.07415712
        0.03621831       -0.03658285        0.02264154
        0.02712405       -0.03287259        0.14007148
        0.01911829       -0.02898986        0.27876641
        0.01219966       -0.02492076        0.43875235
        0.00635477       -0.02062507        0.61970331
        0.00161282       -0.01598591        0.80676078
       -0.00195402       -0.01098942        0.96685471
       -0.00421401       -0.00560863        1.06123306
       -0.00500001       -0.00000001        1.05865437
       -0.00421401        0.00560862        0.95315476
       -0.00195404        0.01098942        0.76114754
        0.00161281        0.01598591        0.52267679
        0.00635476        0.02062507        0.28137109
        0.01219965        0.02492076        0.06837772
        0.01911827        0.02898987       -0.10652735
        0.02712403        0.03287260       -0.24995408
        0.03621830        0.03658287       -0.36685464
        0.04638367        0.04009232       -0.45914631
        0.05760012        0.04342844       -0.53217698
        0.06985599        0.04658625       -0.59556045
        0.08313153        0.04955751       -0.65315217
        0.09739439        0.05231131       -0.70314368
        0.11260989        0.05486023       -0.74485203
        0.12874853        0.05719614       -0.78238427
        0.14577660        0.05931141       -0.81757567
        0.16364869        0.06118202       -0.84850798
        0.18151298        0.06275610       -0.87524869
        0.19937167        0.06406666       -0.89932129
        0.21729923        0.06514471       -0.92131062
        0.23536152        0.06601322       -0.94142482
        0.25354935        0.06668698       -0.95967232
        0.27185321        0.06717911       -0.97630146
        0.29026353        0.06750144       -0.99134122
        0.30877071        0.06766454       -1.00515889
        0.32736478        0.06767811       -1.01757010
        0.34603597        0.06755226       -1.02894719
        0.36477474        0.06729543       -1.03908888
        0.38357147        0.06691556       -1.04860784
        0.40241621        0.06641936       -1.05698656
        0.42129894        0.06581456       -1.06488694
        0.44020998        0.06510789       -1.07155943
        0.45913949        0.06430575       -1.07804288
        0.47807766        0.06341418       -1.08331255
        0.49701465        0.06243891       -1.08876725
        0.51594065        0.06138536       -1.09254600
        0.53484581        0.06025867       -1.09720435
        0.55372033        0.05906369       -1.10104388
        0.57255437        0.05780500       -1.10058070
        0.59133811        0.05648692       -1.10937608
        0.61006173        0.05511355       -1.01618409
        0.62871542        0.05368871       -0.46758682
        0.64728936        0.05221602       -0.01027550
        0.66577374        0.05069888       -0.00331926
        0.68415875        0.04914050       -0.00794972
        0.70243458        0.04754388       -0.00726012
        0.72059139        0.04591188       -0.00318679
        0.73861939        0.04424717        0.00235684
        0.75650872        0.04255231        0.00957547
        0.77424960        0.04082968        0.01846491
        0.79183223        0.03908156        0.02867718
        0.80924691        0.03731011        0.04032341
        0.82648431        0.03551716        0.05315078
        0.84353391        0.03370359        0.06755665
        0.86038479        0.03187264        0.08315037
        0.87702777        0.03002628        0.10058076
        0.89345408        0.02816689        0.11931891
        0.90965345        0.02629480        0.14082712
        0.92561705        0.02441315        0.16418007
        0.94133606        0.02252327        0.19190611
        0.95679742        0.02062867        0.22251765
        0.97199129        0.01873045        0.26057635
        0.98704118        0.01679843        0.30309900
        1.00104306        0.01498537        0.34992767
        1.01500160        0.01512707        0.31987747
        1.03282345        0.01530680        0.26234952
        1.05402244        0.01550062        0.23551010
        1.07921785        0.01573352        0.20003942
        1.10916917        0.01601075        0.17408385
        1.14477280        0.01634018        0.15065525
        1.18709485        0.01673180        0.12970324
        1.23740291        0.01719735        0.11104291
        1.29720395        0.01775075        0.09431499
        1.36828953        0.01840860        0.07936252
        1.45278948        0.01919059        0.06609292
        1.55323564        0.02012013        0.05443212
        1.67263761        0.02122504        0.04431580
        1.81457280        0.02253837        0.03566772
        1.98329348        0.02409941        0.02839699
        2.18385425        0.02595481        0.02238721
        2.42226344        0.02816005        0.01750987
        2.70566336        0.03078111        0.01361790
        3.04254429        0.03389652        0.01056965
        3.44299889        0.03759976        0.00821695
        3.91902453        0.04200209        0.00643548
        4.48488255        0.04723574        0.00509856
        5.15752550        0.05345759        0.00411583
        5.95710504        0.06085378        0.00338692
        6.90757570        0.06964556        0.00285698
        8.03741254        0.08009632        0.00244293
        9.38046422        0.09251944        0.00211944
       10.97696690        0.10728716        0.00180386
       12.87475040        0.12484165        0.00149475
       15.13067090        0.14570880        0.00108837
       17.81230890        0.17051390        0.00063232
       21.00000000        0.20000000        0.00045075
       21.00000000       -0.41299653        0.00046876
       17.81291090       -0.36066861        0.00066484
       15.13135340       -0.31256113        0.00114666
       12.87543580       -0.27115068        0.00156993
       10.97763900       -0.23577517        0.00189535
        9.38111763       -0.20561530        0.00222984
        8.03804457       -0.17992410        0.00257521
        6.90818474       -0.15805240        0.00301546
        5.95769050       -0.13944360        0.00357613
        5.15808787       -0.12362178        0.00434099
        4.48542342       -0.11017851        0.00536498
        3.91954648       -0.09876261        0.00674866
        3.44350520       -0.08907332        0.00858186
        3.04303868       -0.08085463        0.01099036
        2.70614986       -0.07388909        0.01409647
        2.42274642       -0.06799145        0.01804536
        2.18433852       -0.06300310        0.02297410
        1.98378439       -0.05878793        0.02902376
        1.81507606       -0.05522913        0.03631516
        1.67315899       -0.05222685        0.04495550
        1.55378057       -0.04969609        0.05502479
        1.45336285       -0.04756476        0.06658609
        1.36889591       -0.04577197        0.07968679
        1.29784830       -0.04426647        0.09437584
        1.23809175       -0.04300525        0.11070295
        1.18783788       -0.04195251        0.12875425
        1.14558475       -0.04107876        0.14869515
        1.11007224       -0.04036037        0.17030391
        1.08024560       -0.03977962        0.19349281
        1.05522753       -0.03932629        0.22012699
        1.03429321       -0.03899950        0.23952125
        1.01688732       -0.03879433        0.26574211
        1.00348953       -0.03874621        0.27642370
        0.99007223       -0.03997662        0.25804132
        0.97537218       -0.04145061        0.23302999
        0.96031352       -0.04299399        0.20353910
        0.94483236       -0.04458840        0.17632163
        0.92900192       -0.04620944        0.14925072
        0.91288976       -0.04783990        0.12492249
        0.89653643       -0.04947055        0.10152337
        0.87996511       -0.05109457        0.08021352
        0.86319428       -0.05270751        0.05972291
        0.84622769       -0.05430352        0.04056427
        0.82906538       -0.05587937        0.02203204
        0.81171705       -0.05743156        0.00439133
        0.79419405       -0.05895873       -0.01283070
        0.77650603       -0.06045921       -0.02952454
        0.75866258       -0.06193117       -0.04596517
        0.74067318       -0.06337260       -0.06211109
        0.72254727       -0.06478130       -0.07813608
        0.70429434       -0.06615488       -0.09403946
        0.68592388       -0.06749074       -0.10993999
        0.66744545       -0.06878611       -0.12585617
        0.64886857       -0.07003804       -0.14187251
        0.63020280       -0.07124338       -0.15801835
        0.61145771       -0.07239881       -0.17435280
        0.59264290       -0.07350078       -0.19089625
        0.57376794       -0.07454553       -0.20770794
        0.55484247       -0.07552906       -0.22486609
        0.53587611       -0.07644715       -0.24238006
        0.51687850       -0.07729528       -0.25999883
        0.49785928       -0.07806868       -0.27754345
        0.47882811       -0.07876230       -0.29587515
        0.45979466       -0.07937078       -0.31667148
        0.44076859       -0.07988846       -0.33879576
        0.42175956       -0.08030933       -0.35526186
        0.40277723       -0.08062706       -0.35851226
        0.38383106       -0.08083490       -0.35462122
        0.36493104       -0.08092530       -0.37754181
        0.34608701       -0.08089134       -0.46690269
        0.32730828       -0.08072507       -0.57856815
        0.30860397       -0.08041791       -0.62843135
        0.28998363       -0.07995983       -0.62272129
        0.27145702       -0.07934090       -0.60506784
        0.25303336       -0.07855028       -0.58835130
        0.23472166       -0.07757583       -0.57235985
        0.21653070       -0.07640397       -0.55440537
        0.19846825       -0.07501925       -0.53282231
        0.18046879       -0.07339669       -0.50715166
        0.16245877       -0.07150275       -0.47693714
        0.14443901       -0.06930241       -0.44133467
        0.12724462       -0.06686215       -0.40011902
        0.11092856       -0.06420263       -0.35482335
        0.09552110       -0.06132986       -0.30452168
        0.08104609       -0.05824804       -0.24581690
        0.06753632       -0.05494595       -0.17757956
        0.05502190       -0.05144614       -0.09991225
        0.04351248       -0.04774884       -0.01072750
        0.03300725       -0.04384527        0.09458861
        0.02351886       -0.03969879        0.21801797
        0.01505933       -0.03531212        0.35779887
        0.00761656       -0.03063715        0.50950287
        0.00117665       -0.02558326        0.66452746
       -0.00419547       -0.01999045        0.80552264
       -0.00834084       -0.01381812        0.91110472
       -0.01100443       -0.00709498        0.96559335
       -0.01194333        0.00000002        0.96056285
       -0.01100441        0.00709501        0.89541247
       -0.00834080        0.01381814        0.77157148
       -0.00419542        0.01999045        0.60015849
        0.00117671        0.02558325        0.40222233
        0.00761662        0.03063711        0.20333004
        0.01505939        0.03531206        0.02200247
        0.02351892        0.03969871       -0.13530754
        0.03300732        0.04384517       -0.26789695
        0.04351255        0.04774872       -0.37607260
        0.05502196        0.05144600       -0.46315468
        0.06753638        0.05494579       -0.53665662
        0.08104614        0.05824785       -0.60166215
        0.09552116        0.06132964       -0.65837877
        0.11092862        0.06420239       -0.70610504
        0.12724468        0.06686188       -0.74783803
        0.14443906        0.06930211       -0.78612763
        0.16245882        0.07150242       -0.82003496
        0.18046884        0.07339634       -0.84933576
        0.19846829        0.07501886       -0.87523903
        0.21653075        0.07640355       -0.89867167
        0.23472170        0.07757538       -0.92007217
        0.25303340        0.07854980       -0.93951698
        0.27145705        0.07934039       -0.95725378
        0.28998366        0.07995928       -0.97329787
        0.30860401        0.08041733       -0.98802982
        0.32730831        0.08072445       -1.00132486
        0.34608704        0.08089069       -1.01354349
        0.36493106        0.08092461       -1.02443777
        0.38383108        0.08083417       -1.03461766
        0.40277724        0.08062629       -1.04362883
        0.42175957        0.08030853       -1.05217349
        0.44076859        0.07988761       -1.05945586
        0.45979466        0.07936989       -1.06651700
        0.47882811        0.07876137       -1.07228930
        0.49785927        0.07806771       -1.07816900
        0.51687849        0.07729426       -1.08232397
        0.53587610        0.07644609       -1.08750827
        0.55484246        0.07552797       -1.09184951
        0.57376792        0.07454438       -1.09044148
        0.59264287        0.07349959       -1.10198139
        0.61145769        0.07239758       -1.00937795
        0.63020277        0.07124211       -0.45797470
        0.64886853        0.07003673       -0.00473936
        0.66744541        0.06878476       -0.00020712
        0.68592384        0.06748936       -0.00434792
        0.70429430        0.06615346       -0.00343784
        0.72254723        0.06477985        0.00061870
        0.74067314        0.06337109        0.00619151
        0.75866254        0.06192958        0.01343482
        0.77650598        0.06045751        0.02232398
        0.79419398        0.05895690        0.03252512
        0.81171698        0.05742962        0.04413977
        0.82906531        0.05587740        0.05690974
        0.84622765        0.05430169        0.07116429
        0.86319431        0.05270608        0.08652470
        0.87996527        0.05109383        0.10359412
        0.89653675        0.04947078        0.12176804
        0.91289027        0.04784127        0.14219085
        0.92900260        0.04621190        0.16362241
        0.94483315        0.04459161        0.18778125
        0.96031437        0.04299744        0.21197238