 VARIABLES="X","Y"
zone I=193 , J= 33 
  0.210000000E+02  0.000000000E+00
  0.178123110E+02  0.000000000E+00
  0.151306712E+02  0.000000000E+00
  0.128747523E+02  0.000000000E+00
  0.109769695E+02  0.000000000E+00
  0.938046730E+01  0.000000000E+00
  0.803741615E+01  0.000000000E+00
  0.690757970E+01  0.000000000E+00
  0.595710927E+01  0.000000000E+00
  0.515752980E+01  0.000000000E+00
  0.448488674E+01  0.000000000E+00
  0.391902844E+01  0.000000000E+00
  0.344300239E+01  0.000000000E+00
  0.304254737E+01  0.000000000E+00
  0.270566617E+01  0.000000000E+00
  0.242226620E+01  0.000000000E+00
  0.218385711E+01  0.000000000E+00
  0.198329640E+01  0.000000000E+00
  0.181457550E+01  0.000000000E+00
  0.167263971E+01  0.000000000E+00
  0.155323680E+01  0.000000000E+00
  0.145278957E+01  0.000000000E+00
  0.136828874E+01  0.000000000E+00
  0.129720275E+01  0.000000000E+00
  0.123740194E+01  0.000000000E+00
  0.118709475E+01  0.000000000E+00
  0.114477402E+01  0.000000000E+00
  0.110917188E+01  0.000000000E+00
  0.107922172E+01  0.000000000E+00
  0.105402627E+01  0.000000000E+00
  0.103283069E+01  0.000000000E+00
  0.101500000E+01  0.000000000E+00
  0.100000000E+01  0.000000000E+00
  0.985000000E+00 -0.210055596E-02
  0.970000000E+00 -0.416351182E-02
  0.954862335E+00 -0.620827291E-02
  0.939457309E+00 -0.825164212E-02
  0.923794818E+00 -0.102921069E-01
  0.907884757E+00 -0.123271650E-01
  0.891737020E+00 -0.143553457E-01
  0.875361503E+00 -0.163730987E-01
  0.858768100E+00 -0.183800878E-01
  0.841966708E+00 -0.203741114E-01
  0.824967220E+00 -0.223530096E-01
  0.807779531E+00 -0.243134323E-01
  0.790413538E+00 -0.262543922E-01
  0.772879134E+00 -0.281738162E-01
  0.755186215E+00 -0.300694006E-01
  0.737344675E+00 -0.319387529E-01
  0.719364411E+00 -0.337793705E-01
  0.701255316E+00 -0.355886235E-01
  0.683027287E+00 -0.373637371E-01
  0.664690217E+00 -0.391017756E-01
  0.646254002E+00 -0.407996281E-01
  0.627728536E+00 -0.424539948E-01
  0.609123716E+00 -0.440613742E-01
  0.590449436E+00 -0.456180518E-01
  0.571715590E+00 -0.471200885E-01
  0.552932075E+00 -0.485633107E-01
  0.534108785E+00 -0.499432995E-01
  0.515255614E+00 -0.512553810E-01
  0.496382459E+00 -0.524946160E-01
  0.477499213E+00 -0.536557890E-01
  0.458615773E+00 -0.547333968E-01
  0.439742033E+00 -0.557216343E-01
  0.420887888E+00 -0.566143804E-01
  0.402063233E+00 -0.574051790E-01
  0.383277963E+00 -0.580872151E-01
  0.364541973E+00 -0.586527179E-01
  0.345865158E+00 -0.590949191E-01
  0.327257414E+00 -0.594058385E-01
  0.308728634E+00 -0.595769879E-01
  0.290288715E+00 -0.595982289E-01
  0.271947552E+00 -0.594598660E-01
  0.253715038E+00 -0.591513186E-01
  0.235601070E+00 -0.586607945E-01
  0.217615542E+00 -0.579752278E-01
  0.199768349E+00 -0.570799394E-01
  0.181994436E+00 -0.559529004E-01
  0.164220523E+00 -0.545642151E-01
  0.146446609E+00 -0.528815102E-01
  0.129524437E+00 -0.509486576E-01
  0.113494773E+00 -0.487892118E-01
  0.983962342E-01 -0.464115965E-01
  0.842651938E-01 -0.438256957E-01
  0.711356949E-01 -0.410199211E-01
  0.590393678E-01 -0.380263072E-01
  0.480053534E-01 -0.348575430E-01
  0.380602337E-01 -0.315272039E-01
  0.292279673E-01 -0.280163474E-01
  0.215298320E-01 -0.243654708E-01
  0.149843733E-01 -0.205886020E-01
  0.960735973E-02 -0.167018777E-01
  0.541174492E-02 -0.126522201E-01
  0.240763658E-02 -0.849596059E-02
  0.602271798E-03 -0.424288706E-02
  0.000000000E+00  0.000000000E+00
  0.602271798E-03  0.424288706E-02
  0.240763658E-02  0.849596059E-02
  0.541174492E-02  0.126522201E-01
  0.960735973E-02  0.167018777E-01
  0.149843733E-01  0.205886020E-01
  0.215298320E-01  0.243654708E-01
  0.292279673E-01  0.280163474E-01
  0.380602337E-01  0.315272039E-01
  0.480053534E-01  0.348575430E-01
  0.590393678E-01  0.380263072E-01
  0.711356949E-01  0.410199211E-01
  0.842651938E-01  0.438256957E-01
  0.983962342E-01  0.464115965E-01
  0.113494773E+00  0.487892118E-01
  0.129524437E+00  0.509486576E-01
  0.146446609E+00  0.528815102E-01
  0.164220523E+00  0.545642151E-01
  0.181994436E+00  0.559529004E-01
  0.199768349E+00  0.570799394E-01
  0.217615542E+00  0.579752278E-01
  0.235601070E+00  0.586607945E-01
  0.253715038E+00  0.591513186E-01
  0.271947552E+00  0.594598660E-01
  0.290288715E+00  0.595982289E-01
  0.308728634E+00  0.595769879E-01
  0.327257414E+00  0.594058385E-01
  0.345865158E+00  0.590949191E-01
  0.364541973E+00  0.586527179E-01
  0.383277963E+00  0.580872151E-01
  0.402063233E+00  0.574051790E-01
  0.420887888E+00  0.566143804E-01
  0.439742033E+00  0.557216343E-01
  0.458615773E+00  0.547333968E-01
  0.477499213E+00  0.536557890E-01
  0.496382459E+00  0.524946160E-01
  0.515255614E+00  0.512553810E-01
  0.534108785E+00  0.499432995E-01
  0.552932075E+00  0.485633107E-01
  0.571715590E+00  0.471200885E-01
  0.590449436E+00  0.456180518E-01
  0.609123716E+00  0.440613742E-01
  0.627728536E+00  0.424539948E-01
  0.646254002E+00  0.407996281E-01
  0.664690217E+00  0.391017756E-01
  0.683027287E+00  0.373637371E-01
  0.701255316E+00  0.355886235E-01
  0.719364411E+00  0.337793705E-01
  0.737344675E+00  0.319387529E-01
  0.755186215E+00  0.300694006E-01
  0.772879134E+00  0.281738162E-01
  0.790413538E+00  0.262543922E-01
  0.807779531E+00  0.243134323E-01
  0.824967220E+00  0.223530096E-01
  0.841966708E+00  0.203741114E-01
  0.858768100E+00  0.183800878E-01
  0.875361503E+00  0.163730987E-01
  0.891737020E+00  0.143553457E-01
  0.907884757E+00  0.123271650E-01
  0.923794818E+00  0.102921069E-01
  0.939457309E+00  0.825164212E-02
  0.954862335E+00  0.620827291E-02
  0.970000000E+00  0.416351182E-02
  0.985000000E+00  0.210055596E-02
  0.100000000E+01  0.000000000E+00
  0.101500000E+01  0.000000000E+00
  0.103283069E+01  0.000000000E+00
  0.105402627E+01  0.000000000E+00
  0.107922172E+01  0.000000000E+00
  0.110917188E+01  0.000000000E+00
  0.114477402E+01  0.000000000E+00
  0.118709475E+01  0.000000000E+00
  0.123740194E+01  0.000000000E+00
  0.129720275E+01  0.000000000E+00
  0.136828874E+01  0.000000000E+00
  0.145278957E+01  0.000000000E+00
  0.155323680E+01  0.000000000E+00
  0.167263971E+01  0.000000000E+00
  0.181457550E+01  0.000000000E+00
  0.198329640E+01  0.000000000E+00
  0.218385711E+01  0.000000000E+00
  0.242226620E+01  0.000000000E+00
  0.270566617E+01  0.000000000E+00
  0.304254737E+01  0.000000000E+00
  0.344300239E+01  0.000000000E+00
  0.391902844E+01  0.000000000E+00
  0.448488674E+01  0.000000000E+00
  0.515752980E+01  0.000000000E+00
  0.595710927E+01  0.000000000E+00
  0.690757970E+01  0.000000000E+00
  0.803741615E+01  0.000000000E+00
  0.938046730E+01  0.000000000E+00
  0.109769695E+02  0.000000000E+00
  0.128747523E+02  0.000000000E+00
  0.151306712E+02  0.000000000E+00
  0.178123110E+02  0.000000000E+00
  0.210000000E+02  0.000000000E+00
  0.210000000E+02 -0.200000000E+00
  0.178123088E+02 -0.170513891E+00
  0.151306712E+02 -0.145708798E+00
  0.128747507E+02 -0.124841643E+00
  0.109769673E+02 -0.107287113E+00
  0.938046466E+01 -0.925193407E-01
  0.803741308E+01 -0.800961525E-01
  0.690757630E+01 -0.696453113E-01
  0.595710568E+01 -0.608534830E-01
  0.515752617E+01 -0.534573622E-01
  0.448488323E+01 -0.472357221E-01
  0.391902521E+01 -0.420023168E-01
  0.344299955E+01 -0.376001203E-01
  0.304254491E+01 -0.338968389E-01
  0.270566393E+01 -0.307812291E-01
  0.242226395E+01 -0.281598745E-01
  0.218385471E+01 -0.259543368E-01
  0.198329390E+01 -0.240987019E-01
  0.181457318E+01 -0.225375261E-01
  0.167263795E+01 -0.212241421E-01
  0.155323594E+01 -0.201192590E-01
  0.145278974E+01 -0.191897991E-01
  0.136828974E+01 -0.184079203E-01
  0.129720411E+01 -0.177501929E-01
  0.123740303E+01 -0.171969037E-01
  0.118709494E+01 -0.167314682E-01
  0.114477287E+01 -0.163399396E-01
  0.110916923E+01 -0.160105787E-01
  0.107921791E+01 -0.157334109E-01
  0.105402249E+01 -0.155005542E-01
  0.103282349E+01 -0.153067821E-01
  0.101500168E+01 -0.151270458E-01
  0.100104309E+01 -0.149854098E-01
  0.987041171E+00 -0.167984355E-01
  0.971991360E+00 -0.187305194E-01
  0.956797463E+00 -0.206287695E-01
  0.941336098E+00 -0.225233934E-01
  0.925617094E+00 -0.244132874E-01
  0.909653492E+00 -0.262949239E-01
  0.893454125E+00 -0.281669796E-01
  0.877027802E+00 -0.300262937E-01
  0.860384818E+00 -0.318725626E-01
  0.843533920E+00 -0.337034298E-01
  0.826484315E+00 -0.355169417E-01
  0.809246910E+00 -0.373098498E-01
  0.791832226E+00 -0.390812824E-01
  0.774249599E+00 -0.408293965E-01
  0.756508724E+00 -0.425520357E-01
  0.738619386E+00 -0.442469202E-01
  0.720591397E+00 -0.459116416E-01
  0.702434580E+00 -0.475436576E-01
  0.684158758E+00 -0.491402817E-01
  0.665773750E+00 -0.506986712E-01
  0.647289369E+00 -0.522158123E-01
  0.628715427E+00 -0.536885056E-01
  0.610061736E+00 -0.551133509E-01
  0.591338112E+00 -0.564867337E-01
  0.572554371E+00 -0.578048135E-01
  0.553720333E+00 -0.590635119E-01
  0.534845819E+00 -0.602585027E-01
  0.515940653E+00 -0.613852014E-01
  0.497014659E+00 -0.624387552E-01
  0.478077665E+00 -0.634140319E-01
  0.459139498E+00 -0.643056087E-01
  0.440209985E+00 -0.651077577E-01
  0.421298952E+00 -0.658144311E-01
  0.402416223E+00 -0.664192422E-01
  0.383571485E+00 -0.669154451E-01
  0.364774753E+00 -0.672953206E-01
  0.346035983E+00 -0.675521513E-01
  0.327364790E+00 -0.676780100E-01
  0.308770718E+00 -0.676644476E-01
  0.290263546E+00 -0.675013476E-01
  0.271853224E+00 -0.671790259E-01
  0.253549368E+00 -0.666868980E-01
  0.235361533E+00 -0.660131439E-01
  0.217299244E+00 -0.651446390E-01
  0.199371684E+00 -0.640665914E-01
  0.181512999E+00 -0.627560409E-01
  0.163648702E+00 -0.611819625E-01
  0.145776612E+00 -0.593113539E-01
  0.128748546E+00 -0.571960886E-01
  0.112609911E+00 -0.548601867E-01
  0.973944042E-01 -0.523112685E-01
  0.831315442E-01 -0.495574731E-01
  0.698560088E-01 -0.465862244E-01
  0.576001395E-01 -0.434284118E-01
  0.463836896E-01 -0.400923018E-01
  0.362183119E-01 -0.365828528E-01
  0.271240456E-01 -0.328725855E-01
  0.191182873E-01 -0.289898563E-01
  0.121996587E-01 -0.249207573E-01
  0.635476818E-02 -0.206250709E-01
  0.161281711E-02 -0.159859074E-01
 -0.195402296E-02 -0.109894233E-01
 -0.421400537E-02 -0.560863237E-02
 -0.500000885E-02 -0.526212047E-08
 -0.421401233E-02  0.560862392E-02
 -0.195403501E-02  0.109894194E-01
  0.161280549E-02  0.159859070E-01
  0.635475605E-02  0.206250724E-01
  0.121996453E-01  0.249207631E-01
  0.191182726E-01  0.289898666E-01
  0.271240302E-01  0.328726001E-01
  0.362182960E-01  0.365828713E-01
  0.463836735E-01  0.400923241E-01
  0.576001232E-01  0.434284378E-01
  0.698559923E-01  0.465862542E-01
  0.831315276E-01  0.495575069E-01
  0.973943874E-01  0.523113065E-01
  0.112609894E+00  0.548602290E-01
  0.128748529E+00  0.571961354E-01
  0.145776595E+00  0.593114053E-01
  0.163648686E+00  0.611820191E-01
  0.181512984E+00  0.627561024E-01
  0.199371669E+00  0.640666578E-01
  0.217299230E+00  0.651447102E-01
  0.235361520E+00  0.660132200E-01
  0.253549355E+00  0.666869790E-01
  0.271853212E+00  0.671791118E-01
  0.290263534E+00  0.675014385E-01
  0.308770707E+00  0.676645435E-01
  0.327364779E+00  0.676781110E-01
  0.346035972E+00  0.675522574E-01
  0.364774743E+00  0.672954318E-01
  0.383571475E+00  0.669155616E-01
  0.402416214E+00  0.664193641E-01
  0.421298943E+00  0.658145586E-01
  0.440209976E+00  0.651078911E-01
  0.459139490E+00  0.643057484E-01
  0.478077658E+00  0.634141784E-01
  0.497014653E+00  0.624389087E-01
  0.515940647E+00  0.613853624E-01
  0.534845814E+00  0.602586714E-01
  0.553720328E+00  0.590636881E-01
  0.572554366E+00  0.578049968E-01
  0.591338107E+00  0.564869235E-01
  0.610061731E+00  0.551135462E-01
  0.628715422E+00  0.536887056E-01
  0.647289364E+00  0.522160164E-01
  0.665773745E+00  0.506988800E-01
  0.684158754E+00  0.491404968E-01
  0.702434576E+00  0.475438813E-01
  0.720591393E+00  0.459118790E-01
  0.738619385E+00  0.442471724E-01
  0.756508724E+00  0.425523053E-01
  0.774249602E+00  0.408296773E-01
  0.791832229E+00  0.390815639E-01
  0.809246912E+00  0.373101132E-01
  0.826484311E+00  0.355171633E-01
  0.843533906E+00  0.337035865E-01
  0.860384794E+00  0.318726374E-01
  0.877027767E+00  0.300262820E-01
  0.893454082E+00  0.281668945E-01
  0.909653448E+00  0.262947954E-01
  0.925617054E+00  0.244131507E-01
  0.941336061E+00  0.225232732E-01
  0.956797420E+00  0.206286710E-01
  0.971991294E+00  0.187304480E-01
  0.987041180E+00  0.167984275E-01
  0.100104306E+01  0.149853654E-01
  0.101500160E+01  0.151270651E-01
  0.103282345E+01  0.153068013E-01
  0.105402244E+01  0.155006177E-01
  0.107921785E+01  0.157335227E-01
  0.110916917E+01  0.160107487E-01
  0.114477280E+01  0.163401842E-01
  0.118709485E+01  0.167318042E-01
  0.123740291E+01  0.171973461E-01
  0.129720395E+01  0.177507530E-01
  0.136828953E+01  0.184086006E-01
  0.145278948E+01  0.191905886E-01
  0.155323564E+01  0.201201281E-01
  0.167263761E+01  0.212250379E-01
  0.181457280E+01  0.225383726E-01
  0.198329348E+01  0.240994061E-01
  0.218385425E+01  0.259548073E-01
  0.242226344E+01  0.281600498E-01
  0.270566336E+01  0.307811118E-01
  0.304254429E+01  0.338965178E-01
  0.344299889E+01  0.375997591E-01
  0.391902453E+01  0.420020945E-01
  0.448488255E+01  0.472357424E-01
  0.515752550E+01  0.534575913E-01
  0.595710504E+01  0.608537820E-01
  0.690757570E+01  0.696455564E-01
  0.803741254E+01  0.800963163E-01
  0.938046422E+01  0.925194434E-01
  0.109769669E+02  0.107287160E+00
  0.128747504E+02  0.124841651E+00
  0.151306709E+02  0.145708800E+00
  0.178123089E+02  0.170513896E+00
  0.210000000E+02  0.200000000E+00
  0.210000000E+02 -0.412996526E+00
  0.178129109E+02 -0.360668610E+00
  0.151313534E+02 -0.312561126E+00
  0.128754358E+02 -0.271150678E+00
  0.109776390E+02 -0.235775169E+00
  0.938111763E+01 -0.205615298E+00
  0.803804457E+01 -0.179924095E+00
  0.690818474E+01 -0.158052396E+00
  0.595769050E+01 -0.139443603E+00
  0.515808787E+01 -0.123621781E+00
  0.448542342E+01 -0.110178510E+00
  0.391954648E+01 -0.987626064E-01
  0.344350520E+01 -0.890733165E-01
  0.304303868E+01 -0.808546305E-01
  0.270614986E+01 -0.738890928E-01
  0.242274642E+01 -0.679914459E-01
  0.218433852E+01 -0.630031023E-01
  0.198378439E+01 -0.587879263E-01
  0.181507606E+01 -0.552291281E-01
  0.167315899E+01 -0.522268544E-01
  0.155378057E+01 -0.496960892E-01
  0.145336285E+01 -0.475647574E-01
  0.136889591E+01 -0.457719703E-01
  0.129784830E+01 -0.442664654E-01
  0.123809175E+01 -0.430052536E-01
  0.118783788E+01 -0.419525129E-01
  0.114558475E+01 -0.410787602E-01
  0.111007224E+01 -0.403603684E-01
  0.108024560E+01 -0.397796221E-01
  0.105522753E+01 -0.393262872E-01
  0.103429321E+01 -0.389994977E-01
  0.101688732E+01 -0.387943287E-01
  0.100348953E+01 -0.387462100E-01
  0.990072227E+00 -0.399766177E-01
  0.975372181E+00 -0.414506134E-01
  0.960313519E+00 -0.429939940E-01
  0.944832359E+00 -0.445883982E-01
  0.929001918E+00 -0.462094448E-01
  0.912889763E+00 -0.478399027E-01
  0.896536427E+00 -0.494705548E-01
  0.879965114E+00 -0.510945733E-01
  0.863194278E+00 -0.527075090E-01
  0.846227685E+00 -0.543035152E-01
  0.829065377E+00 -0.558793660E-01
  0.811717047E+00 -0.574315606E-01
  0.794194045E+00 -0.589587310E-01
  0.776506029E+00 -0.604592142E-01
  0.758662585E+00 -0.619311688E-01
  0.740673183E+00 -0.633725957E-01
  0.722547273E+00 -0.647812977E-01
  0.704294336E+00 -0.661548755E-01
  0.685923883E+00 -0.674907378E-01
  0.667445445E+00 -0.687861101E-01
  0.648868565E+00 -0.700380378E-01
  0.630202798E+00 -0.712433815E-01
  0.611457713E+00 -0.723988076E-01
  0.592642895E+00 -0.735007759E-01
  0.573767944E+00 -0.745455259E-01
  0.554842473E+00 -0.755290632E-01
  0.535876111E+00 -0.764471466E-01
  0.516878495E+00 -0.772952752E-01
  0.497859276E+00 -0.780686770E-01
  0.478828109E+00 -0.787622955E-01
  0.459794658E+00 -0.793707770E-01
  0.440768586E+00 -0.798884552E-01
  0.421759560E+00 -0.803093332E-01
  0.402777228E+00 -0.806270608E-01
  0.383831060E+00 -0.808349007E-01
  0.364931039E+00 -0.809253019E-01
  0.346087015E+00 -0.808913446E-01
  0.327308280E+00 -0.807250728E-01
  0.308603974E+00 -0.804179107E-01
  0.289983626E+00 -0.799598264E-01
  0.271457017E+00 -0.793409000E-01
  0.253033356E+00 -0.785502792E-01
  0.234721658E+00 -0.775758274E-01
  0.216530700E+00 -0.764039716E-01
  0.198468247E+00 -0.750192502E-01
  0.180468793E+00 -0.733966911E-01
  0.162458766E+00 -0.715027477E-01
  0.144439010E+00 -0.693024103E-01
  0.127244625E+00 -0.668621488E-01
  0.110928564E+00 -0.642026281E-01
  0.955211013E-01 -0.613298576E-01
  0.810460860E-01 -0.582480413E-01
  0.675363197E-01 -0.549459528E-01
  0.550219027E-01 -0.514461419E-01
  0.435124847E-01 -0.477488435E-01
  0.330072542E-01 -0.438452709E-01
  0.235188587E-01 -0.396987917E-01
  0.150593256E-01 -0.353121152E-01
  0.761655922E-02 -0.306371524E-01
  0.117664957E-02 -0.255832647E-01
 -0.419546788E-02 -0.199904481E-01
 -0.834084342E-02 -0.138181217E-01
 -0.110044294E-01 -0.709498165E-02
 -0.119433301E-01  0.163166135E-07
 -0.110044070E-01  0.709501071E-02
 -0.834080074E-02  0.138181374E-01
 -0.419541919E-02  0.199904502E-01
  0.117670535E-02  0.255832471E-01
  0.761662063E-02  0.306371135E-01
  0.150593894E-01  0.353120550E-01
  0.235189230E-01  0.396987109E-01
  0.330073180E-01  0.438451695E-01
  0.435125477E-01  0.477487211E-01
  0.550219646E-01  0.514459977E-01
  0.675363803E-01  0.549457861E-01
  0.810461450E-01  0.582478510E-01
  0.955211583E-01  0.613296426E-01
  0.110928620E+00  0.642023876E-01
  0.127244678E+00  0.668618813E-01
  0.144439060E+00  0.693021143E-01
  0.162458817E+00  0.715024222E-01
  0.180468841E+00  0.733963354E-01
  0.198468295E+00  0.750188641E-01
  0.216530746E+00  0.764035547E-01
  0.234721700E+00  0.775753790E-01
  0.253033397E+00  0.785497984E-01
  0.271457054E+00  0.793403862E-01
  0.289983661E+00  0.799592786E-01
  0.308604007E+00  0.804173279E-01
  0.327308309E+00  0.807244543E-01
  0.346087041E+00  0.808906896E-01
  0.364931061E+00  0.809246097E-01
  0.383831079E+00  0.808341706E-01
  0.402777243E+00  0.806262923E-01
  0.421759571E+00  0.803085257E-01
  0.440768594E+00  0.798876083E-01
  0.459794662E+00  0.793698902E-01
  0.478828110E+00  0.787613682E-01
  0.497859273E+00  0.780677085E-01
  0.516878488E+00  0.772942648E-01
  0.535876099E+00  0.764460933E-01
  0.554842458E+00  0.755279662E-01
  0.573767925E+00  0.745443843E-01
  0.592642873E+00  0.734995895E-01
  0.611457687E+00  0.723975771E-01
  0.630202767E+00  0.712421090E-01
  0.648868528E+00  0.700367265E-01
  0.667445405E+00  0.687847639E-01
  0.685923842E+00  0.674893601E-01
  0.704294296E+00  0.661534643E-01
  0.722547232E+00  0.647798476E-01
  0.740673142E+00  0.633710876E-01
  0.758662540E+00  0.619295788E-01
  0.776505978E+00  0.604575112E-01
  0.794193983E+00  0.589569006E-01
  0.811716977E+00  0.574296222E-01
  0.829065309E+00  0.558774027E-01
  0.846227645E+00  0.543016935E-01
  0.863194308E+00  0.527060770E-01
  0.879965266E+00  0.510938290E-01
  0.896536749E+00  0.494707838E-01
  0.912890273E+00  0.478412721E-01
  0.929002597E+00  0.462118967E-01
  0.944833151E+00  0.445916099E-01
  0.960314366E+00  0.429974402E-01
  0.975373020E+00  0.414537226E-01
  0.990073084E+00  0.399789194E-01
  0.100349022E+01  0.387473742E-01
  0.101688780E+01  0.387942440E-01
  0.103429350E+01  0.389975491E-01
  0.105522757E+01  0.393220815E-01
  0.108024542E+01  0.397728371E-01
  0.111007190E+01  0.403508249E-01
  0.114558431E+01  0.410664716E-01
  0.118783738E+01  0.419377169E-01
  0.123809122E+01  0.429884317E-01
  0.129784773E+01  0.442483387E-01
  0.136889530E+01  0.457534692E-01
  0.145336220E+01  0.475469482E-01
  0.155377991E+01  0.496800668E-01
  0.167315833E+01  0.522135841E-01
  0.181507538E+01  0.552192618E-01
  0.198378367E+01  0.587816187E-01
  0.218433771E+01  0.629999126E-01
  0.242274551E+01  0.679903731E-01
  0.270614884E+01  0.738888290E-01
  0.304303755E+01  0.808539792E-01
  0.344350398E+01  0.890716357E-01
  0.391954520E+01  0.987600206E-01
  0.448542212E+01  0.110175727E+00
  0.515808657E+01  0.123619561E+00
  0.595768925E+01  0.139442246E+00
  0.690818356E+01  0.158051671E+00
  0.803804352E+01  0.179923645E+00
  0.938111677E+01  0.205614964E+00
  0.109776383E+02  0.235774922E+00
  0.128754354E+02  0.271150502E+00
  0.151313529E+02  0.312561023E+00
  0.178129111E+02  0.360668579E+00
  0.210000000E+02  0.412996526E+00
  0.210000000E+02 -0.639834125E+00
  0.178142074E+02 -0.571124444E+00
  0.151328901E+02 -0.501715936E+00
  0.128770385E+02 -0.440533379E+00
  0.109792632E+02 -0.387467075E+00
  0.938274608E+01 -0.341630104E+00
  0.803966569E+01 -0.302103953E+00
  0.690978939E+01 -0.268058332E+00
  0.595927190E+01 -0.238767875E+00
  0.515964216E+01 -0.213601498E+00
  0.448695005E+01 -0.192005329E+00
  0.392104804E+01 -0.173492354E+00
  0.344498700E+01 -0.157639020E+00
  0.304450826E+01 -0.144081424E+00
  0.270761670E+01 -0.132507455E+00
  0.242422187E+01 -0.122647027E+00
  0.218583580E+01 -0.114263884E+00
  0.198531830E+01 -0.107150380E+00
  0.181666243E+01 -0.101124576E+00
  0.167481387E+01 -0.960283373E-01
  0.155551945E+01 -0.917254946E-01
  0.145520052E+01 -0.880997845E-01
  0.137084742E+01 -0.850526331E-01
  0.129993095E+01 -0.825009879E-01
  0.124032806E+01 -0.803753417E-01
  0.119025884E+01 -0.786180471E-01
  0.114823280E+01 -0.771819349E-01
  0.111300278E+01 -0.760291307E-01
  0.108352554E+01 -0.751298019E-01
  0.105892768E+01 -0.744607725E-01
  0.103847066E+01 -0.740028368E-01
  0.102155274E+01 -0.737292932E-01
  0.100848049E+01 -0.736335832E-01
  0.995413967E+00 -0.743343938E-01
  0.981089960E+00 -0.752438517E-01
  0.966243556E+00 -0.762694902E-01
  0.950769135E+00 -0.773937357E-01
  0.934781074E+00 -0.785874432E-01
  0.918418198E+00 -0.798241283E-01
  0.901779462E+00 -0.810850241E-01
  0.884924102E+00 -0.823559513E-01
  0.867892001E+00 -0.836252385E-01
  0.850685271E+00 -0.848812675E-01
  0.833292242E+00 -0.861173607E-01
  0.815719382E+00 -0.873280941E-01
  0.797978321E+00 -0.885105490E-01
  0.780079307E+00 -0.896624490E-01
  0.762031959E+00 -0.907818140E-01
  0.743845334E+00 -0.918666883E-01
  0.725528258E+00 -0.929149571E-01
  0.707089541E+00 -0.939242799E-01
  0.688538045E+00 -0.948920847E-01
  0.669882688E+00 -0.958155866E-01
  0.651132437E+00 -0.966918056E-01
  0.632296303E+00 -0.975175772E-01
  0.613383340E+00 -0.982895519E-01
  0.594402645E+00 -0.990041871E-01
  0.575363358E+00 -0.996577333E-01
  0.556274660E+00 -0.100246218E+00
  0.537145771E+00 -0.100765426E+00
  0.517985941E+00 -0.101210889E+00
  0.498804450E+00 -0.101577860E+00
  0.479610601E+00 -0.101861303E+00
  0.460413715E+00 -0.102055873E+00
  0.441223123E+00 -0.102155899E+00
  0.422048159E+00 -0.102155358E+00
  0.402898143E+00 -0.102047849E+00
  0.383782223E+00 -0.101826552E+00
  0.364710096E+00 -0.101483968E+00
  0.345691277E+00 -0.101012803E+00
  0.326734622E+00 -0.100404850E+00
  0.307848778E+00 -0.996511894E-01
  0.289042802E+00 -0.987416398E-01
  0.270325984E+00 -0.976657189E-01
  0.251706899E+00 -0.964118662E-01
  0.233193745E+00 -0.949670872E-01
  0.214794193E+00 -0.933166729E-01
  0.196514456E+00 -0.914436095E-01
  0.178290890E+00 -0.893193511E-01
  0.160053340E+00 -0.869059940E-01
  0.141807135E+00 -0.841653509E-01
  0.124356688E+00 -0.811834517E-01
  0.107761235E+00 -0.779756845E-01
  0.920497823E-01 -0.745446373E-01
  0.772422361E-01 -0.708891065E-01
  0.633673303E-01 -0.669970995E-01
  0.504505803E-01 -0.628784171E-01
  0.384932653E-01 -0.585208543E-01
  0.274863691E-01 -0.538984859E-01
  0.174372212E-01 -0.489608152E-01
  0.835948531E-02 -0.436812354E-01
  0.249527911E-03 -0.379805093E-01
 -0.688018292E-02 -0.317342892E-01
 -0.129123722E-01 -0.247659118E-01
 -0.175986951E-01 -0.170562950E-01
 -0.205913863E-01 -0.875095153E-02
 -0.216478092E-01  0.946599688E-07
 -0.205912753E-01  0.875112390E-02
 -0.175984851E-01  0.170564132E-01
 -0.129121137E-01  0.247659640E-01
 -0.687987883E-02  0.317342584E-01
  0.249870525E-03  0.379803830E-01
  0.835985375E-02  0.436810084E-01
  0.174376054E-01  0.489604867E-01
  0.274867623E-01  0.538980549E-01
  0.384936635E-01  0.585203186E-01
  0.504509808E-01  0.628777738E-01
  0.633677314E-01  0.669963450E-01
  0.772426365E-01  0.708882365E-01
  0.920501804E-01  0.745436466E-01
  0.107761631E+00  0.779745681E-01
  0.124357080E+00  0.811822040E-01
  0.141807522E+00  0.841639653E-01
  0.160053727E+00  0.869044643E-01
  0.178291270E+00  0.893176763E-01
  0.196514833E+00  0.914417891E-01
  0.214794563E+00  0.933147052E-01
  0.233194105E+00  0.949649694E-01
  0.251707253E+00  0.964095957E-01
  0.270326326E+00  0.976632926E-01
  0.289043134E+00  0.987390546E-01
  0.307849099E+00  0.996484418E-01
  0.326734931E+00  0.100401936E+00
  0.345691573E+00  0.101009721E+00
  0.364710379E+00  0.101480714E+00
  0.383782492E+00  0.101823124E+00
  0.402898398E+00  0.102044244E+00
  0.422048399E+00  0.102151572E+00
  0.441223348E+00  0.102151930E+00
  0.460413925E+00  0.102051718E+00
  0.479610795E+00  0.101856957E+00
  0.498804627E+00  0.101573321E+00
  0.517986101E+00  0.101206153E+00
  0.537145913E+00  0.100760490E+00
  0.556274785E+00  0.100241079E+00
  0.575363468E+00  0.996523916E-01
  0.594402741E+00  0.989986439E-01
  0.613383417E+00  0.982838117E-01
  0.632296357E+00  0.975116474E-01
  0.651132468E+00  0.966856947E-01
  0.669882701E+00  0.958093023E-01
  0.688538046E+00  0.948856297E-01
  0.707089535E+00  0.939176418E-01
  0.725528239E+00  0.929081151E-01
  0.743845304E+00  0.918595984E-01
  0.762031910E+00  0.907744334E-01
  0.780079237E+00  0.896547501E-01
  0.797978229E+00  0.885025702E-01
  0.815719289E+00  0.873199876E-01
  0.833292199E+00  0.861094425E-01
  0.850685368E+00  0.848740370E-01
  0.867892359E+00  0.836193419E-01
  0.884924860E+00  0.823520775E-01
  0.901780729E+00  0.810837347E-01
  0.918419993E+00  0.798256207E-01
  0.934783306E+00  0.785913548E-01
  0.950771655E+00  0.773991118E-01
  0.966246231E+00  0.762749791E-01
  0.981092661E+00  0.752480541E-01
  0.995416586E+00  0.743361346E-01
  0.100848269E+01  0.736321804E-01
  0.102155434E+01  0.737243229E-01
  0.103847144E+01  0.739926698E-01
  0.105892745E+01  0.744440532E-01
  0.108352434E+01  0.751053352E-01
  0.111300079E+01  0.759960795E-01
  0.114823027E+01  0.771400137E-01
  0.119025601E+01  0.785676860E-01
  0.124032513E+01  0.803177986E-01
  0.129992806E+01  0.824383833E-01
  0.137084467E+01  0.849878870E-01
  0.145519800E+01  0.880364121E-01
  0.155551728E+01  0.916672625E-01
  0.167481214E+01  0.959787516E-01
  0.181666110E+01  0.101086244E+00
  0.198531723E+01  0.107124361E+00
  0.218583484E+01  0.114249242E+00
  0.242422090E+01  0.122640832E+00
  0.270761561E+01  0.132505457E+00
  0.304450698E+01  0.144079356E+00
  0.344498554E+01  0.157634099E+00
  0.392104641E+01  0.173484230E+00
  0.448694830E+01  0.191995829E+00
  0.515964036E+01  0.213593150E+00
  0.595927013E+01  0.238762124E+00
  0.690978772E+01  0.268054892E+00
  0.803966420E+01  0.302101788E+00
  0.938274486E+01  0.341628607E+00
  0.109792623E+02  0.387466090E+00
  0.128770378E+02  0.440532769E+00
  0.151328894E+02  0.501715595E+00
  0.178142078E+02  0.571124325E+00
  0.210000000E+02  0.639834125E+00
  0.210000000E+02 -0.881412228E+00
  0.178162690E+02 -0.802444800E+00
  0.151354427E+02 -0.714181111E+00
  0.128797936E+02 -0.634429781E+00
  0.109821423E+02 -0.564206566E+00
  0.938571540E+01 -0.502771697E+00
  0.804270078E+01 -0.449159947E+00
  0.691286846E+01 -0.402451818E+00
  0.596237630E+01 -0.361827935E+00
  0.516275820E+01 -0.326562808E+00
  0.449007021E+01 -0.296004063E+00
  0.392417128E+01 -0.269564345E+00
  0.344811840E+01 -0.246725124E+00
  0.304765852E+01 -0.227037246E+00
  0.271080191E+01 -0.210111697E+00
  0.242746324E+01 -0.195605850E+00
  0.218915924E+01 -0.183212528E+00
  0.198875355E+01 -0.172654639E+00
  0.182024150E+01 -0.163683871E+00
  0.167856931E+01 -0.156080672E+00
  0.155948299E+01 -0.149653686E+00
  0.145940312E+01 -0.144238171E+00
  0.137532108E+01 -0.139693599E+00
  0.130471195E+01 -0.135900847E+00
  0.124546041E+01 -0.132759271E+00
  0.119579614E+01 -0.130183704E+00
  0.115423596E+01 -0.128101312E+00
  0.111953166E+01 -0.126448290E+00
  0.109062409E+01 -0.125166760E+00
  0.106660561E+01 -0.124202815E+00
  0.104668810E+01 -0.123505723E+00
  0.103021133E+01 -0.123024203E+00
  0.101735471E+01 -0.122738198E+00
  0.100450817E+01 -0.122958568E+00
  0.990453332E+00 -0.123310328E+00
  0.975745894E+00 -0.123761103E+00
  0.960207247E+00 -0.124306964E+00
  0.943965797E+00 -0.124933466E+00
  0.927222023E+00 -0.125622084E+00
  0.910138112E+00 -0.126355492E+00
  0.892820039E+00 -0.127117471E+00
  0.875339757E+00 -0.127891926E+00
  0.857704440E+00 -0.128662128E+00
  0.839893737E+00 -0.129417011E+00
  0.821912459E+00 -0.130148069E+00
  0.803773503E+00 -0.130849869E+00
  0.785488436E+00 -0.131518486E+00
  0.767067393E+00 -0.132150893E+00
  0.748519250E+00 -0.132744470E+00
  0.729852225E+00 -0.133296655E+00
  0.711074314E+00 -0.133804780E+00
  0.692193490E+00 -0.134266003E+00
  0.673217761E+00 -0.134677296E+00
  0.654155191E+00 -0.135035455E+00
  0.635013906E+00 -0.135337112E+00
  0.615802100E+00 -0.135578732E+00
  0.596528042E+00 -0.135756611E+00
  0.577200080E+00 -0.135866855E+00
  0.557826636E+00 -0.135905364E+00
  0.538416205E+00 -0.135867810E+00
  0.518977348E+00 -0.135749611E+00
  0.499518680E+00 -0.135545906E+00
  0.480048869E+00 -0.135251536E+00
  0.460576616E+00 -0.134861017E+00
  0.441110653E+00 -0.134368510E+00
  0.421659724E+00 -0.133767794E+00
  0.402232564E+00 -0.133052228E+00
  0.382837754E+00 -0.132214697E+00
  0.363484394E+00 -0.131247447E+00
  0.344181372E+00 -0.130142583E+00
  0.324936890E+00 -0.128891295E+00
  0.305758889E+00 -0.127483937E+00
  0.286655669E+00 -0.125909637E+00
  0.267635679E+00 -0.124156819E+00
  0.248706572E+00 -0.122212535E+00
  0.229875486E+00 -0.120062085E+00
  0.211148895E+00 -0.117688605E+00
  0.192531843E+00 -0.115072321E+00
  0.173963406E+00 -0.112179068E+00
  0.155377338E+00 -0.108964155E+00
  0.136780693E+00 -0.105384081E+00
  0.118941385E+00 -0.101548936E+00
  0.101921006E+00 -0.974681599E-01
  0.857482863E-01 -0.931387771E-01